<?xml version="1.0"?>
<VTKFile type="UnstructuredGrid"  version="0.1"  >
<UnstructuredGrid>
<Piece  NumberOfPoints="33" NumberOfCells="32">
<Points>
<DataArray  type="Float64"  NumberOfComponents="3"  format="ascii">0 0.5 0.5  0.03125 0.5 0.5  0.0625 0.5 0.5  0.09375 0.5 0.5  0.125 0.5 0.5  0.15625 0.5 0.5  0.1875 0.5 0.5  0.21875 0.5 0.5  0.25 0.5 0.5  0.28125 0.5 0.5  0.3125 0.5 0.5  0.34375 0.5 0.5  0.375 0.5 0.5  0.40625 0.5 0.5  0.4375 0.5 0.5  0.46875 0.5 0.5  0.5 0.5 0.5  0.53125 0.5 0.5  0.5625 0.5 0.5  0.59375 0.5 0.5  0.625 0.5 0.5  0.65625 0.5 0.5  0.6875 0.5 0.5  0.71875 0.5 0.5  0.75 0.5 0.5  0.78125 0.5 0.5  0.8125 0.5 0.5  0.84375 0.5 0.5  0.875 0.5 0.5  0.90625 0.5 0.5  0.9375 0.5 0.5  0.96875 0.5 0.5  1 0.5 0.5  </DataArray>
</Points>
<Cells>
<DataArray  type="UInt32"  Name="connectivity"  format="ascii">0 1  1 2  2 3  3 4  4 5  5 6  6 7  7 8  8 9  9 10  10 11  11 12  12 13  13 14  14 15  15 16  16 17  17 18  18 19  19 20  20 21  21 22  22 23  23 24  24 25  25 26  26 27  27 28  28 29  29 30  30 31  31 32  </DataArray>
<DataArray  type="UInt32"  Name="offsets"  format="ascii">2 4 6 8 10 12 14 16 18 20 22 24 26 28 30 32 34 36 38 40 42 44 46 48 50 52 54 56 58 60 62 64 </DataArray>
<DataArray  type="UInt8"  Name="types"  format="ascii">3 3 3 3 3 3 3 3 3 3 3 3 3 3 3 3 3 3 3 3 3 3 3 3 3 3 3 3 3 3 3 3 </DataArray>
</Cells>
<PointData  Scalars="f_32"> 
<DataArray  type="Float64"  Name="f_32"  format="ascii">0.0000000000000000e+00  3.9166012056126576e-02  7.8331829564876734e-02  1.1749686225124749e-01  1.5665901980968447e-01  1.9581161205802408e-01  2.3493530331588167e-01  2.7397968726622768e-01  3.1282641308312548e-01  3.5122570338884740e-01  3.8870502571302606e-01  4.2446623173946718e-01  4.5731283205369355e-01  4.8566822653477332e-01  5.0773711898990992e-01  5.2181275624744805e-01  5.2665607386565760e-01  5.2181275624744794e-01  5.0773711898990959e-01  4.8566822653477287e-01  4.5731283205369300e-01  4.2446623173946657e-01  3.8870502571302545e-01  3.5122570338884695e-01  3.1282641308312514e-01  2.7397968726622735e-01  2.3493530331588136e-01  1.9581161205802380e-01  1.5665901980968422e-01  1.1749686225124731e-01  7.8331829564876623e-02  3.9166012056126520e-02  0.0000000000000000e+00  </DataArray> 
</PointData> 
</Piece>
</UnstructuredGrid>
</VTKFile>